s 1.000117500 _0_ MAC  --- 0 bb 8 [0:0--1:0 ID 0 10390323 06 0 0 068 0:0] 
s 1.001055000 _0_ MAC  --- 0 bb 8 [0:0--1:0 ID 0 10390323 53 0 0 068 1:0] 
s 1.001367500 _0_ MAC  --- 0 bb 8 [0:0--1:0 ID 0 10390323 69 0 0 068 2:0] 
s 1.002305000 _0_ MAC  --- 0 bb 8 [0:0--1:0 ID 0 10390323 37 0 0 068 3:0] 
s 1.002617500 _0_ MAC  --- 0 bb 8 [0:0--1:0 ID 0 10390323 08 0 0 068 4:0] 
s 1.003555000 _0_ MAC  --- 0 bb 8 [0:0--1:0 ID 0 10390323 55 0 0 068 5:0] 
s 1.003867500 _0_ MAC  --- 0 bb 8 [0:0--1:0 ID 0 10390323 71 0 0 068 6:0] 
s 1.004805000 _0_ MAC  --- 0 bb 8 [0:0--1:0 ID 0 10390323 39 0 0 068 7:0] 
s 1.005117500 _0_ MAC  --- 0 bb 8 [0:0--1:0 ID 0 10390323 10 0 0 068 8:0] 
s 1.006055000 _0_ MAC  --- 0 bb 8 [0:0--1:0 ID 0 10390323 57 0 0 068 9:0] 
s 1.006367500 _0_ MAC  --- 0 bb 8 [0:0--1:0 ID 0 10390323 73 0 0 068 10:0] 
s 1.007305000 _0_ MAC  --- 0 bb 8 [0:0--1:0 ID 0 10390323 41 0 0 068 11:0] 
s 1.007617500 _0_ MAC  --- 0 bb 8 [0:0--1:0 ID 0 10390323 75 0 0 068 12:0] 
s 1.008555000 _0_ MAC  --- 0 bb 8 [0:0--1:0 ID 0 10390323 51 0 0 068 13:0] 
s 1.008867500 _0_ MAC  --- 0 bb 8 [0:0--1:0 ID 0 10390323 67 0 0 068 14:0] 
s 1.009805000 _0_ MAC  --- 0 bb 8 [0:0--1:0 ID 0 10390323 35 0 0 068 15:0] 
s 1.010117500 _0_ MAC  --- 0 bb 8 [0:0--1:0 ID 0 10390323 06 0 0 068 16:0] 
s 1.011055000 _0_ MAC  --- 0 bb 8 [0:0--1:0 ID 0 10390323 53 0 0 068 17:0] 
s 1.011367500 _0_ MAC  --- 0 bb 8 [0:0--1:0 ID 0 10390323 69 0 0 068 18:0] 
s 1.012305000 _0_ MAC  --- 0 bb 8 [0:0--1:0 ID 0 10390323 37 0 0 068 19:0] 
s 1.012617500 _0_ MAC  --- 0 bb 8 [0:0--1:0 ID 0 10390323 08 0 0 068 20:0] 
s 1.013555000 _0_ MAC  --- 0 bb 8 [0:0--1:0 ID 0 10390323 55 0 0 068 21:0] 
s 1.013867500 _0_ MAC  --- 0 bb 8 [0:0--1:0 ID 0 10390323 71 0 0 068 22:0] 
s 1.014805000 _0_ MAC  --- 0 bb 8 [0:0--1:0 ID 0 10390323 39 0 0 068 23:0] 
s 1.015117500 _0_ MAC  --- 0 bb 8 [0:0--1:0 ID 0 10390323 10 0 0 068 24:0] 
s 1.016055000 _0_ MAC  --- 0 bb 8 [0:0--1:0 ID 0 10390323 57 0 0 068 25:0] 
s 1.016367500 _0_ MAC  --- 0 bb 8 [0:0--1:0 ID 0 10390323 73 0 0 068 26:0] 
s 1.017305000 _0_ MAC  --- 0 bb 8 [0:0--1:0 ID 0 10390323 41 0 0 068 27:0] 
s 1.017617500 _0_ MAC  --- 0 bb 8 [0:0--1:0 ID 0 10390323 75 0 0 068 28:0] 
s 1.018555000 _0_ MAC  --- 0 bb 8 [0:0--1:0 ID 0 10390323 51 0 0 068 29:0] 
s 1.018867500 _0_ MAC  --- 0 bb 8 [0:0--1:0 ID 0 10390323 67 0 0 068 30:0] 
s 1.019805000 _0_ MAC  --- 0 bb 8 [0:0--1:0 ID 0 10390323 35 0 0 068 31:0] 
s 1.020117500 _0_ MAC  --- 0 bb 8 [0:0--1:0 ID 0 10390323 06 0 0 068 32:0] 
s 1.021055000 _0_ MAC  --- 0 bb 8 [0:0--1:0 ID 0 10390323 53 0 0 068 33:0] 
s 1.021367500 _0_ MAC  --- 0 bb 8 [0:0--1:0 ID 0 10390323 69 0 0 068 34:0] 
s 1.022305000 _0_ MAC  --- 0 bb 8 [0:0--1:0 ID 0 10390323 37 0 0 068 35:0] 
s 1.022617500 _0_ MAC  --- 0 bb 8 [0:0--1:0 ID 0 10390323 08 0 0 068 36:0] 
s 1.023555000 _0_ MAC  --- 0 bb 8 [0:0--1:0 ID 0 10390323 55 0 0 068 37:0] 
s 1.023867500 _0_ MAC  --- 0 bb 8 [0:0--1:0 ID 0 10390323 71 0 0 068 38:0] 
s 1.024805000 _0_ MAC  --- 0 bb 8 [0:0--1:0 ID 0 10390323 39 0 0 068 39:0] 
s 1.025117500 _0_ MAC  --- 0 bb 8 [0:0--1:0 ID 0 10390323 10 0 0 068 40:0] 
s 1.026055000 _0_ MAC  --- 0 bb 8 [0:0--1:0 ID 0 10390323 57 0 0 068 41:0] 
s 1.026367500 _0_ MAC  --- 0 bb 8 [0:0--1:0 ID 0 10390323 73 0 0 068 42:0] 
s 1.027305000 _0_ MAC  --- 0 bb 8 [0:0--1:0 ID 0 10390323 41 0 0 068 43:0] 
s 1.027617500 _0_ MAC  --- 0 bb 8 [0:0--1:0 ID 0 10390323 75 0 0 068 44:0] 
s 1.028555000 _0_ MAC  --- 0 bb 8 [0:0--1:0 ID 0 10390323 51 0 0 068 45:0] 
s 1.028867500 _0_ MAC  --- 0 bb 8 [0:0--1:0 ID 0 10390323 67 0 0 068 46:0] 
s 1.029805000 _0_ MAC  --- 0 bb 8 [0:0--1:0 ID 0 10390323 35 0 0 068 47:0] 
s 1.030117500 _0_ MAC  --- 0 bb 8 [0:0--1:0 ID 0 10390323 06 0 0 068 48:0] 
s 1.031055000 _0_ MAC  --- 0 bb 8 [0:0--1:0 ID 0 10390323 53 0 0 068 49:0] 
s 1.031367500 _0_ MAC  --- 0 bb 8 [0:0--1:0 ID 0 10390323 69 0 0 068 50:0] 
s 1.032305000 _0_ MAC  --- 0 bb 8 [0:0--1:0 ID 0 10390323 37 0 0 068 51:0] 
s 1.032617500 _0_ MAC  --- 0 bb 8 [0:0--1:0 ID 0 10390323 08 0 0 068 52:0] 
s 1.033555000 _0_ MAC  --- 0 bb 8 [0:0--1:0 ID 0 10390323 55 0 0 068 53:0] 
s 1.033867500 _0_ MAC  --- 0 bb 8 [0:0--1:0 ID 0 10390323 71 0 0 068 54:0] 
s 1.034805000 _0_ MAC  --- 0 bb 8 [0:0--1:0 ID 0 10390323 39 0 0 068 55:0] 
s 1.035117500 _0_ MAC  --- 0 bb 8 [0:0--1:0 ID 0 10390323 10 0 0 068 56:0] 
s 1.036055000 _0_ MAC  --- 0 bb 8 [0:0--1:0 ID 0 10390323 57 0 0 068 57:0] 
s 1.036367500 _0_ MAC  --- 0 bb 8 [0:0--1:0 ID 0 10390323 73 0 0 068 58:0] 
s 1.037305000 _0_ MAC  --- 0 bb 8 [0:0--1:0 ID 0 10390323 41 0 0 068 59:0] 
s 1.037617500 _0_ MAC  --- 0 bb 8 [0:0--1:0 ID 0 10390323 75 0 0 068 60:0] 
s 1.038555000 _0_ MAC  --- 0 bb 8 [0:0--1:0 ID 0 10390323 51 0 0 068 61:0] 
s 1.038867500 _0_ MAC  --- 0 bb 8 [0:0--1:0 ID 0 10390323 67 0 0 068 62:0] 
s 1.039805000 _0_ MAC  --- 0 bb 8 [0:0--1:0 ID 0 10390323 35 0 0 068 63:0] 
s 1.040117500 _0_ MAC  --- 0 bb 8 [0:0--1:0 ID 0 10390323 06 0 0 068 64:0] 
s 1.041055000 _0_ MAC  --- 0 bb 8 [0:0--1:0 ID 0 10390323 53 0 0 068 65:0] 
s 1.041367500 _0_ MAC  --- 0 bb 8 [0:0--1:0 ID 0 10390323 69 0 0 068 66:0] 
s 1.042305000 _0_ MAC  --- 0 bb 8 [0:0--1:0 ID 0 10390323 37 0 0 068 67:0] 
s 1.042617500 _0_ MAC  --- 0 bb 8 [0:0--1:0 ID 0 10390323 08 0 0 068 68:0] 
s 1.043555000 _0_ MAC  --- 0 bb 8 [0:0--1:0 ID 0 10390323 55 0 0 068 69:0] 
s 1.043867500 _0_ MAC  --- 0 bb 8 [0:0--1:0 ID 0 10390323 71 0 0 068 70:0] 
s 1.044805000 _0_ MAC  --- 0 bb 8 [0:0--1:0 ID 0 10390323 39 0 0 068 71:0] 
s 1.045117500 _0_ MAC  --- 0 bb 8 [0:0--1:0 ID 0 10390323 10 0 0 068 72:0] 
s 1.046055000 _0_ MAC  --- 0 bb 8 [0:0--1:0 ID 0 10390323 57 0 0 068 73:0] 
s 1.046367500 _0_ MAC  --- 0 bb 8 [0:0--1:0 ID 0 10390323 73 0 0 068 74:0] 
s 1.047305000 _0_ MAC  --- 0 bb 8 [0:0--1:0 ID 0 10390323 41 0 0 068 75:0] 
s 1.047617500 _0_ MAC  --- 0 bb 8 [0:0--1:0 ID 0 10390323 75 0 0 068 76:0] 
s 1.048555000 _0_ MAC  --- 0 bb 8 [0:0--1:0 ID 0 10390323 51 0 0 068 77:0] 
s 1.048867500 _0_ MAC  --- 0 bb 8 [0:0--1:0 ID 0 10390323 67 0 0 068 78:0] 
s 1.049805000 _0_ MAC  --- 0 bb 8 [0:0--1:0 ID 0 10390323 35 0 0 068 79:0] 
s 1.050117500 _0_ MAC  --- 0 bb 8 [0:0--1:0 ID 0 10390323 06 0 0 068 80:0] 
s 1.051055000 _0_ MAC  --- 0 bb 8 [0:0--1:0 ID 0 10390323 53 0 0 068 81:0] 
s 1.051367500 _0_ MAC  --- 0 bb 8 [0:0--1:0 ID 0 10390323 69 0 0 068 82:0] 
s 1.052305000 _0_ MAC  --- 0 bb 8 [0:0--1:0 ID 0 10390323 37 0 0 068 83:0] 
s 1.052617500 _0_ MAC  --- 0 bb 8 [0:0--1:0 ID 0 10390323 08 0 0 068 84:0] 
s 1.053555000 _0_ MAC  --- 0 bb 8 [0:0--1:0 ID 0 10390323 55 0 0 068 85:0] 
s 1.053867500 _0_ MAC  --- 0 bb 8 [0:0--1:0 ID 0 10390323 71 0 0 068 86:0] 
s 1.054805000 _0_ MAC  --- 0 bb 8 [0:0--1:0 ID 0 10390323 39 0 0 068 87:0] 
s 1.055117500 _0_ MAC  --- 0 bb 8 [0:0--1:0 ID 0 10390323 10 0 0 068 88:0] 
s 1.056055000 _0_ MAC  --- 0 bb 8 [0:0--1:0 ID 0 10390323 57 0 0 068 89:0] 
s 1.056367500 _0_ MAC  --- 0 bb 8 [0:0--1:0 ID 0 10390323 73 0 0 068 90:0] 
s 1.057305000 _0_ MAC  --- 0 bb 8 [0:0--1:0 ID 0 10390323 41 0 0 068 91:0] 
s 1.057617500 _0_ MAC  --- 0 bb 8 [0:0--1:0 ID 0 10390323 75 0 0 068 92:0] 
s 1.058555000 _0_ MAC  --- 0 bb 8 [0:0--1:0 ID 0 10390323 51 0 0 068 93:0] 
s 1.058867500 _0_ MAC  --- 0 bb 8 [0:0--1:0 ID 0 10390323 67 0 0 068 94:0] 
s 1.059805000 _0_ MAC  --- 0 bb 8 [0:0--1:0 ID 0 10390323 35 0 0 068 95:0] 
s 1.060117500 _0_ MAC  --- 0 bb 8 [0:0--1:0 ID 0 10390323 06 0 0 068 96:0] 
s 1.061055000 _0_ MAC  --- 0 bb 8 [0:0--1:0 ID 0 10390323 53 0 0 068 97:0] 
s 1.061367500 _0_ MAC  --- 0 bb 8 [0:0--1:0 ID 0 10390323 69 0 0 068 98:0] 
s 1.062305000 _0_ MAC  --- 0 bb 8 [0:0--1:0 ID 0 10390323 37 0 0 068 99:0] 
s 1.062617500 _0_ MAC  --- 0 bb 8 [0:0--1:0 ID 0 10390323 08 0 0 068 100:0] 
s 1.063555000 _0_ MAC  --- 0 bb 8 [0:0--1:0 ID 0 10390323 55 0 0 068 101:0] 
s 1.063867500 _0_ MAC  --- 0 bb 8 [0:0--1:0 ID 0 10390323 71 0 0 068 102:0] 
s 1.064805000 _0_ MAC  --- 0 bb 8 [0:0--1:0 ID 0 10390323 39 0 0 068 103:0] 
s 1.065117500 _0_ MAC  --- 0 bb 8 [0:0--1:0 ID 0 10390323 10 0 0 068 104:0] 
s 1.066055000 _0_ MAC  --- 0 bb 8 [0:0--1:0 ID 0 10390323 57 0 0 068 105:0] 
s 1.066367500 _0_ MAC  --- 0 bb 8 [0:0--1:0 ID 0 10390323 73 0 0 068 106:0] 
s 1.067305000 _0_ MAC  --- 0 bb 8 [0:0--1:0 ID 0 10390323 41 0 0 068 107:0] 
s 1.067617500 _0_ MAC  --- 0 bb 8 [0:0--1:0 ID 0 10390323 75 0 0 068 108:0] 
s 1.068555000 _0_ MAC  --- 0 bb 8 [0:0--1:0 ID 0 10390323 51 0 0 068 109:0] 
s 1.068867500 _0_ MAC  --- 0 bb 8 [0:0--1:0 ID 0 10390323 67 0 0 068 110:0] 
s 1.069805000 _0_ MAC  --- 0 bb 8 [0:0--1:0 ID 0 10390323 35 0 0 068 111:0] 
s 1.070117500 _0_ MAC  --- 0 bb 8 [0:0--1:0 ID 0 10390323 06 0 0 068 112:0] 
s 1.071055000 _0_ MAC  --- 0 bb 8 [0:0--1:0 ID 0 10390323 53 0 0 068 113:0] 
s 1.071367500 _0_ MAC  --- 0 bb 8 [0:0--1:0 ID 0 10390323 69 0 0 068 114:0] 
s 1.072305000 _0_ MAC  --- 0 bb 8 [0:0--1:0 ID 0 10390323 37 0 0 068 115:0] 
s 1.072617500 _0_ MAC  --- 0 bb 8 [0:0--1:0 ID 0 10390323 08 0 0 068 116:0] 
s 1.073555000 _0_ MAC  --- 0 bb 8 [0:0--1:0 ID 0 10390323 55 0 0 068 117:0] 
s 1.073867500 _0_ MAC  --- 0 bb 8 [0:0--1:0 ID 0 10390323 71 0 0 068 118:0] 
s 1.074805000 _0_ MAC  --- 0 bb 8 [0:0--1:0 ID 0 10390323 39 0 0 068 119:0] 
s 1.075117500 _0_ MAC  --- 0 bb 8 [0:0--1:0 ID 0 10390323 10 0 0 068 120:0] 
s 1.076055000 _0_ MAC  --- 0 bb 8 [0:0--1:0 ID 0 10390323 57 0 0 068 121:0] 
s 1.076367500 _0_ MAC  --- 0 bb 8 [0:0--1:0 ID 0 10390323 73 0 0 068 122:0] 
s 1.077305000 _0_ MAC  --- 0 bb 8 [0:0--1:0 ID 0 10390323 41 0 0 068 123:0] 
s 1.077617500 _0_ MAC  --- 0 bb 8 [0:0--1:0 ID 0 10390323 75 0 0 068 124:0] 
s 1.078555000 _0_ MAC  --- 0 bb 8 [0:0--1:0 ID 0 10390323 51 0 0 068 125:0] 
s 1.078867500 _0_ MAC  --- 0 bb 8 [0:0--1:0 ID 0 10390323 67 0 0 068 126:0] 
s 1.079805000 _0_ MAC  --- 0 bb 8 [0:0--1:0 ID 0 10390323 35 0 0 068 127:0] 
s 1.080117500 _0_ MAC  --- 0 bb 8 [0:0--1:0 ID 0 10390323 06 0 0 068 128:0] 
s 1.081055000 _0_ MAC  --- 0 bb 8 [0:0--1:0 ID 0 10390323 53 0 0 068 129:0] 
s 1.081367500 _0_ MAC  --- 0 bb 8 [0:0--1:0 ID 0 10390323 69 0 0 068 130:0] 
s 1.082305000 _0_ MAC  --- 0 bb 8 [0:0--1:0 ID 0 10390323 37 0 0 068 131:0] 
s 1.082617500 _0_ MAC  --- 0 bb 8 [0:0--1:0 ID 0 10390323 08 0 0 068 132:0] 
s 1.083555000 _0_ MAC  --- 0 bb 8 [0:0--1:0 ID 0 10390323 55 0 0 068 133:0] 
s 1.083867500 _0_ MAC  --- 0 bb 8 [0:0--1:0 ID 0 10390323 71 0 0 068 134:0] 
s 1.084805000 _0_ MAC  --- 0 bb 8 [0:0--1:0 ID 0 10390323 39 0 0 068 135:0] 
s 1.085117500 _0_ MAC  --- 0 bb 8 [0:0--1:0 ID 0 10390323 10 0 0 068 136:0] 
s 1.086055000 _0_ MAC  --- 0 bb 8 [0:0--1:0 ID 0 10390323 57 0 0 068 137:0] 
s 1.086367500 _0_ MAC  --- 0 bb 8 [0:0--1:0 ID 0 10390323 73 0 0 068 138:0] 
s 1.087305000 _0_ MAC  --- 0 bb 8 [0:0--1:0 ID 0 10390323 41 0 0 068 139:0] 
s 1.087617500 _0_ MAC  --- 0 bb 8 [0:0--1:0 ID 0 10390323 75 0 0 068 140:0] 
s 1.088555000 _0_ MAC  --- 0 bb 8 [0:0--1:0 ID 0 10390323 51 0 0 068 141:0] 
s 1.088867500 _0_ MAC  --- 0 bb 8 [0:0--1:0 ID 0 10390323 67 0 0 068 142:0] 
s 1.089805000 _0_ MAC  --- 0 bb 8 [0:0--1:0 ID 0 10390323 35 0 0 068 143:0] 
s 1.090117500 _0_ MAC  --- 0 bb 8 [0:0--1:0 ID 0 10390323 06 0 0 068 144:0] 
s 1.091055000 _0_ MAC  --- 0 bb 8 [0:0--1:0 ID 0 10390323 53 0 0 068 145:0] 
s 1.091367500 _0_ MAC  --- 0 bb 8 [0:0--1:0 ID 0 10390323 69 0 0 068 146:0] 
s 1.092305000 _0_ MAC  --- 0 bb 8 [0:0--1:0 ID 0 10390323 37 0 0 068 147:0] 
s 1.092617500 _0_ MAC  --- 0 bb 8 [0:0--1:0 ID 0 10390323 08 0 0 068 148:0] 
s 1.093555000 _0_ MAC  --- 0 bb 8 [0:0--1:0 ID 0 10390323 55 0 0 068 149:0] 
s 1.093867500 _0_ MAC  --- 0 bb 8 [0:0--1:0 ID 0 10390323 71 0 0 068 150:0] 
s 1.094805000 _0_ MAC  --- 0 bb 8 [0:0--1:0 ID 0 10390323 39 0 0 068 151:0] 
s 1.095117500 _0_ MAC  --- 0 bb 8 [0:0--1:0 ID 0 10390323 10 0 0 068 152:0] 
s 1.096055000 _0_ MAC  --- 0 bb 8 [0:0--1:0 ID 0 10390323 57 0 0 068 153:0] 
s 1.096367500 _0_ MAC  --- 0 bb 8 [0:0--1:0 ID 0 10390323 73 0 0 068 154:0] 
s 1.097305000 _0_ MAC  --- 0 bb 8 [0:0--1:0 ID 0 10390323 41 0 0 068 155:0] 
s 1.097617500 _0_ MAC  --- 0 bb 8 [0:0--1:0 ID 0 10390323 75 0 0 068 156:0] 
s 1.098555000 _0_ MAC  --- 0 bb 8 [0:0--1:0 ID 0 10390323 51 0 0 068 157:0] 
s 1.098867500 _0_ MAC  --- 0 bb 8 [0:0--1:0 ID 0 10390323 67 0 0 068 158:0] 
s 1.099805000 _0_ MAC  --- 0 bb 8 [0:0--1:0 ID 0 10390323 35 0 0 068 159:0] 
s 1.100117500 _0_ MAC  --- 0 bb 8 [0:0--1:0 ID 0 10390323 06 0 0 068 160:0] 
s 1.101055000 _0_ MAC  --- 0 bb 8 [0:0--1:0 ID 0 10390323 53 0 0 068 161:0] 
s 1.101367500 _0_ MAC  --- 0 bb 8 [0:0--1:0 ID 0 10390323 69 0 0 068 162:0] 
s 1.102305000 _0_ MAC  --- 0 bb 8 [0:0--1:0 ID 0 10390323 37 0 0 068 163:0] 
s 1.102617500 _0_ MAC  --- 0 bb 8 [0:0--1:0 ID 0 10390323 08 0 0 068 164:0] 
s 1.103555000 _0_ MAC  --- 0 bb 8 [0:0--1:0 ID 0 10390323 55 0 0 068 165:0] 
s 1.103867500 _0_ MAC  --- 0 bb 8 [0:0--1:0 ID 0 10390323 71 0 0 068 166:0] 
s 1.104805000 _0_ MAC  --- 0 bb 8 [0:0--1:0 ID 0 10390323 39 0 0 068 167:0] 
s 1.105117500 _0_ MAC  --- 0 bb 8 [0:0--1:0 ID 0 10390323 10 0 0 068 168:0] 
s 1.106055000 _0_ MAC  --- 0 bb 8 [0:0--1:0 ID 0 10390323 57 0 0 068 169:0] 
s 1.106367500 _0_ MAC  --- 0 bb 8 [0:0--1:0 ID 0 10390323 73 0 0 068 170:0] 
s 1.107305000 _0_ MAC  --- 0 bb 8 [0:0--1:0 ID 0 10390323 41 0 0 068 171:0] 
s 1.107617500 _0_ MAC  --- 0 bb 8 [0:0--1:0 ID 0 10390323 75 0 0 068 172:0] 
s 1.108555000 _0_ MAC  --- 0 bb 8 [0:0--1:0 ID 0 10390323 51 0 0 068 173:0] 
s 1.108867500 _0_ MAC  --- 0 bb 8 [0:0--1:0 ID 0 10390323 67 0 0 068 174:0] 
s 1.109805000 _0_ MAC  --- 0 bb 8 [0:0--1:0 ID 0 10390323 35 0 0 068 175:0] 
s 1.110117500 _0_ MAC  --- 0 bb 8 [0:0--1:0 ID 0 10390323 06 0 0 068 176:0] 
s 1.111055000 _0_ MAC  --- 0 bb 8 [0:0--1:0 ID 0 10390323 53 0 0 068 177:0] 
s 1.111367500 _0_ MAC  --- 0 bb 8 [0:0--1:0 ID 0 10390323 69 0 0 068 178:0] 
s 1.112305000 _0_ MAC  --- 0 bb 8 [0:0--1:0 ID 0 10390323 37 0 0 068 179:0] 
s 1.112617500 _0_ MAC  --- 0 bb 8 [0:0--1:0 ID 0 10390323 08 0 0 068 180:0] 
s 1.113555000 _0_ MAC  --- 0 bb 8 [0:0--1:0 ID 0 10390323 55 0 0 068 181:0] 
s 1.113867500 _0_ MAC  --- 0 bb 8 [0:0--1:0 ID 0 10390323 71 0 0 068 182:0] 
s 1.114805000 _0_ MAC  --- 0 bb 8 [0:0--1:0 ID 0 10390323 39 0 0 068 183:0] 
s 1.115117500 _0_ MAC  --- 0 bb 8 [0:0--1:0 ID 0 10390323 10 0 0 068 184:0] 
s 1.116055000 _0_ MAC  --- 0 bb 8 [0:0--1:0 ID 0 10390323 57 0 0 068 185:0] 
s 1.116367500 _0_ MAC  --- 0 bb 8 [0:0--1:0 ID 0 10390323 73 0 0 068 186:0] 
s 1.117305000 _0_ MAC  --- 0 bb 8 [0:0--1:0 ID 0 10390323 41 0 0 068 187:0] 
s 1.117617500 _0_ MAC  --- 0 bb 8 [0:0--1:0 ID 0 10390323 75 0 0 068 188:0] 
s 1.118555000 _0_ MAC  --- 0 bb 8 [0:0--1:0 ID 0 10390323 51 0 0 068 189:0] 
s 1.118867500 _0_ MAC  --- 0 bb 8 [0:0--1:0 ID 0 10390323 67 0 0 068 190:0] 
s 1.119805000 _0_ MAC  --- 0 bb 8 [0:0--1:0 ID 0 10390323 35 0 0 068 191:0] 
s 1.120117500 _0_ MAC  --- 0 bb 8 [0:0--1:0 ID 0 10390323 06 0 0 068 192:0] 
s 1.121055000 _0_ MAC  --- 0 bb 8 [0:0--1:0 ID 0 10390323 53 0 0 068 193:0] 
s 1.121367500 _0_ MAC  --- 0 bb 8 [0:0--1:0 ID 0 10390323 69 0 0 068 194:0] 
s 1.122305000 _0_ MAC  --- 0 bb 8 [0:0--1:0 ID 0 10390323 37 0 0 068 195:0] 
s 1.122617500 _0_ MAC  --- 0 bb 8 [0:0--1:0 ID 0 10390323 08 0 0 068 196:0] 
s 1.123555000 _0_ MAC  --- 0 bb 8 [0:0--1:0 ID 0 10390323 55 0 0 068 197:0] 
s 1.123867500 _0_ MAC  --- 0 bb 8 [0:0--1:0 ID 0 10390323 71 0 0 068 198:0] 
s 1.124805000 _0_ MAC  --- 0 bb 8 [0:0--1:0 ID 0 10390323 39 0 0 068 199:0] 
s 1.125117500 _0_ MAC  --- 0 bb 8 [0:0--1:0 ID 0 10390323 10 0 0 068 200:0] 
s 1.126055000 _0_ MAC  --- 0 bb 8 [0:0--1:0 ID 0 10390323 57 0 0 068 201:0] 
s 1.126367500 _0_ MAC  --- 0 bb 8 [0:0--1:0 ID 0 10390323 73 0 0 068 202:0] 
s 1.127305000 _0_ MAC  --- 0 bb 8 [0:0--1:0 ID 0 10390323 41 0 0 068 203:0] 
s 1.127617500 _0_ MAC  --- 0 bb 8 [0:0--1:0 ID 0 10390323 75 0 0 068 204:0] 
s 1.128555000 _0_ MAC  --- 0 bb 8 [0:0--1:0 ID 0 10390323 51 0 0 068 205:0] 
s 1.128867500 _0_ MAC  --- 0 bb 8 [0:0--1:0 ID 0 10390323 67 0 0 068 206:0] 
s 1.129805000 _0_ MAC  --- 0 bb 8 [0:0--1:0 ID 0 10390323 35 0 0 068 207:0] 
s 1.130117500 _0_ MAC  --- 0 bb 8 [0:0--1:0 ID 0 10390323 06 0 0 068 208:0] 
s 1.131055000 _0_ MAC  --- 0 bb 8 [0:0--1:0 ID 0 10390323 53 0 0 068 209:0] 
s 1.131367500 _0_ MAC  --- 0 bb 8 [0:0--1:0 ID 0 10390323 69 0 0 068 210:0] 
s 1.132305000 _0_ MAC  --- 0 bb 8 [0:0--1:0 ID 0 10390323 37 0 0 068 211:0] 
s 1.132617500 _0_ MAC  --- 0 bb 8 [0:0--1:0 ID 0 10390323 08 0 0 068 212:0] 
s 1.133555000 _0_ MAC  --- 0 bb 8 [0:0--1:0 ID 0 10390323 55 0 0 068 213:0] 
s 1.133867500 _0_ MAC  --- 0 bb 8 [0:0--1:0 ID 0 10390323 71 0 0 068 214:0] 
s 1.134805000 _0_ MAC  --- 0 bb 8 [0:0--1:0 ID 0 10390323 39 0 0 068 215:0] 
s 1.135117500 _0_ MAC  --- 0 bb 8 [0:0--1:0 ID 0 10390323 10 0 0 068 216:0] 
s 1.136055000 _0_ MAC  --- 0 bb 8 [0:0--1:0 ID 0 10390323 57 0 0 068 217:0] 
s 1.136367500 _0_ MAC  --- 0 bb 8 [0:0--1:0 ID 0 10390323 73 0 0 068 218:0] 
s 1.137305000 _0_ MAC  --- 0 bb 8 [0:0--1:0 ID 0 10390323 41 0 0 068 219:0] 
s 1.137617500 _0_ MAC  --- 0 bb 8 [0:0--1:0 ID 0 10390323 75 0 0 068 220:0] 
s 1.138555000 _0_ MAC  --- 0 bb 8 [0:0--1:0 ID 0 10390323 51 0 0 068 221:0] 
s 1.138867500 _0_ MAC  --- 0 bb 8 [0:0--1:0 ID 0 10390323 67 0 0 068 222:0] 
s 1.139805000 _0_ MAC  --- 0 bb 8 [0:0--1:0 ID 0 10390323 35 0 0 068 223:0] 
s 1.140117500 _0_ MAC  --- 0 bb 8 [0:0--1:0 ID 0 10390323 06 0 0 068 224:0] 
s 1.141055000 _0_ MAC  --- 0 bb 8 [0:0--1:0 ID 0 10390323 53 0 0 068 225:0] 
s 1.141367500 _0_ MAC  --- 0 bb 8 [0:0--1:0 ID 0 10390323 69 0 0 068 226:0] 
s 1.142305000 _0_ MAC  --- 0 bb 8 [0:0--1:0 ID 0 10390323 37 0 0 068 227:0] 
s 1.142617500 _0_ MAC  --- 0 bb 8 [0:0--1:0 ID 0 10390323 08 0 0 068 228:0] 
s 1.143555000 _0_ MAC  --- 0 bb 8 [0:0--1:0 ID 0 10390323 55 0 0 068 229:0] 
s 1.143867500 _0_ MAC  --- 0 bb 8 [0:0--1:0 ID 0 10390323 71 0 0 068 230:0] 
s 1.144805000 _0_ MAC  --- 0 bb 8 [0:0--1:0 ID 0 10390323 39 0 0 068 231:0] 
s 1.145117500 _0_ MAC  --- 0 bb 8 [0:0--1:0 ID 0 10390323 10 0 0 068 232:0] 
s 1.146055000 _0_ MAC  --- 0 bb 8 [0:0--1:0 ID 0 10390323 57 0 0 068 233:0] 
s 1.146367500 _0_ MAC  --- 0 bb 8 [0:0--1:0 ID 0 10390323 73 0 0 068 234:0] 
s 1.147305000 _0_ MAC  --- 0 bb 8 [0:0--1:0 ID 0 10390323 41 0 0 068 235:0] 
s 1.147617500 _0_ MAC  --- 0 bb 8 [0:0--1:0 ID 0 10390323 75 0 0 068 236:0] 
s 1.148555000 _0_ MAC  --- 0 bb 8 [0:0--1:0 ID 0 10390323 51 0 0 068 237:0] 
s 1.148867500 _0_ MAC  --- 0 bb 8 [0:0--1:0 ID 0 10390323 67 0 0 068 238:0] 
s 1.149805000 _0_ MAC  --- 0 bb 8 [0:0--1:0 ID 0 10390323 35 0 0 068 239:0] 
s 1.150117500 _0_ MAC  --- 0 bb 8 [0:0--1:0 ID 0 10390323 06 0 0 068 240:0] 
s 1.151055000 _0_ MAC  --- 0 bb 8 [0:0--1:0 ID 0 10390323 53 0 0 068 241:0] 
s 1.151367500 _0_ MAC  --- 0 bb 8 [0:0--1:0 ID 0 10390323 69 0 0 068 242:0] 
s 1.152305000 _0_ MAC  --- 0 bb 8 [0:0--1:0 ID 0 10390323 37 0 0 068 243:0] 
s 1.152617500 _0_ MAC  --- 0 bb 8 [0:0--1:0 ID 0 10390323 08 0 0 068 244:0] 
s 1.153555000 _0_ MAC  --- 0 bb 8 [0:0--1:0 ID 0 10390323 55 0 0 068 245:0] 
s 1.153867500 _0_ MAC  --- 0 bb 8 [0:0--1:0 ID 0 10390323 71 0 0 068 246:0] 
s 1.154805000 _0_ MAC  --- 0 bb 8 [0:0--1:0 ID 0 10390323 39 0 0 068 247:0] 
s 1.155117500 _0_ MAC  --- 0 bb 8 [0:0--1:0 ID 0 10390323 10 0 0 068 248:0] 
s 1.156055000 _0_ MAC  --- 0 bb 8 [0:0--1:0 ID 0 10390323 57 0 0 068 249:0] 
s 1.156367500 _0_ MAC  --- 0 bb 8 [0:0--1:0 ID 0 10390323 73 0 0 068 250:0] 
s 1.157305000 _0_ MAC  --- 0 bb 8 [0:0--1:0 ID 0 10390323 41 0 0 068 251:0] 
s 1.157617500 _0_ MAC  --- 0 bb 8 [0:0--1:0 ID 0 10390323 75 0 0 068 252:0] 
s 1.158555000 _0_ MAC  --- 0 bb 8 [0:0--1:0 ID 0 10390323 51 0 0 068 253:0] 
s 1.158867500 _0_ MAC  --- 0 bb 8 [0:0--1:0 ID 0 10390323 67 0 0 068 254:0] 
s 1.159805000 _0_ MAC  --- 0 bb 8 [0:0--1:0 ID 0 10390323 35 0 0 068 255:0] 
s 1.160117500 _0_ MAC  --- 0 bb 8 [0:0--1:0 ID 0 10390323 06 0 0 068 256:0] 
s 1.161055000 _0_ MAC  --- 0 bb 8 [0:0--1:0 ID 0 10390323 53 0 0 068 257:0] 
s 1.161367500 _0_ MAC  --- 0 bb 8 [0:0--1:0 ID 0 10390323 69 0 0 068 258:0] 
s 1.162305000 _0_ MAC  --- 0 bb 8 [0:0--1:0 ID 0 10390323 37 0 0 068 259:0] 
s 1.162617500 _0_ MAC  --- 0 bb 8 [0:0--1:0 ID 0 10390323 08 0 0 068 260:0] 
s 1.163555000 _0_ MAC  --- 0 bb 8 [0:0--1:0 ID 0 10390323 55 0 0 068 261:0] 
s 1.163867500 _0_ MAC  --- 0 bb 8 [0:0--1:0 ID 0 10390323 71 0 0 068 262:0] 
s 1.164805000 _0_ MAC  --- 0 bb 8 [0:0--1:0 ID 0 10390323 39 0 0 068 263:0] 
s 1.165117500 _0_ MAC  --- 0 bb 8 [0:0--1:0 ID 0 10390323 10 0 0 068 264:0] 
s 1.166055000 _0_ MAC  --- 0 bb 8 [0:0--1:0 ID 0 10390323 57 0 0 068 265:0] 
s 1.166367500 _0_ MAC  --- 0 bb 8 [0:0--1:0 ID 0 10390323 73 0 0 068 266:0] 
s 1.167305000 _0_ MAC  --- 0 bb 8 [0:0--1:0 ID 0 10390323 41 0 0 068 267:0] 
s 1.167617500 _0_ MAC  --- 0 bb 8 [0:0--1:0 ID 0 10390323 75 0 0 068 268:0] 
s 1.168555000 _0_ MAC  --- 0 bb 8 [0:0--1:0 ID 0 10390323 51 0 0 068 269:0] 
s 1.168867500 _0_ MAC  --- 0 bb 8 [0:0--1:0 ID 0 10390323 67 0 0 068 270:0] 
s 1.169805000 _0_ MAC  --- 0 bb 8 [0:0--1:0 ID 0 10390323 35 0 0 068 271:0] 
s 1.170117500 _0_ MAC  --- 0 bb 8 [0:0--1:0 ID 0 10390323 06 0 0 068 272:0] 
s 1.171055000 _0_ MAC  --- 0 bb 8 [0:0--1:0 ID 0 10390323 53 0 0 068 273:0] 
s 1.171367500 _0_ MAC  --- 0 bb 8 [0:0--1:0 ID 0 10390323 69 0 0 068 274:0] 
s 1.172305000 _0_ MAC  --- 0 bb 8 [0:0--1:0 ID 0 10390323 37 0 0 068 275:0] 
s 1.172617500 _0_ MAC  --- 0 bb 8 [0:0--1:0 ID 0 10390323 08 0 0 068 276:0] 
s 1.173555000 _0_ MAC  --- 0 bb 8 [0:0--1:0 ID 0 10390323 55 0 0 068 277:0] 
s 1.173867500 _0_ MAC  --- 0 bb 8 [0:0--1:0 ID 0 10390323 71 0 0 068 278:0] 
s 1.174805000 _0_ MAC  --- 0 bb 8 [0:0--1:0 ID 0 10390323 39 0 0 068 279:0] 
s 1.175117500 _0_ MAC  --- 0 bb 8 [0:0--1:0 ID 0 10390323 10 0 0 068 280:0] 
s 1.176055000 _0_ MAC  --- 0 bb 8 [0:0--1:0 ID 0 10390323 57 0 0 068 281:0] 
s 1.176367500 _0_ MAC  --- 0 bb 8 [0:0--1:0 ID 0 10390323 73 0 0 068 282:0] 
s 1.177305000 _0_ MAC  --- 0 bb 8 [0:0--1:0 ID 0 10390323 41 0 0 068 283:0] 
s 1.177617500 _0_ MAC  --- 0 bb 8 [0:0--1:0 ID 0 10390323 75 0 0 068 284:0] 
s 1.178555000 _0_ MAC  --- 0 bb 8 [0:0--1:0 ID 0 10390323 51 0 0 068 285:0] 
s 1.178867500 _0_ MAC  --- 0 bb 8 [0:0--1:0 ID 0 10390323 67 0 0 068 286:0] 
s 1.179805000 _0_ MAC  --- 0 bb 8 [0:0--1:0 ID 0 10390323 35 0 0 068 287:0] 
s 1.180117500 _0_ MAC  --- 0 bb 8 [0:0--1:0 ID 0 10390323 06 0 0 068 288:0] 
s 1.181055000 _0_ MAC  --- 0 bb 8 [0:0--1:0 ID 0 10390323 53 0 0 068 289:0] 
s 1.181367500 _0_ MAC  --- 0 bb 8 [0:0--1:0 ID 0 10390323 69 0 0 068 290:0] 
s 1.182305000 _0_ MAC  --- 0 bb 8 [0:0--1:0 ID 0 10390323 37 0 0 068 291:0] 
s 1.182617500 _0_ MAC  --- 0 bb 8 [0:0--1:0 ID 0 10390323 08 0 0 068 292:0] 
s 1.183555000 _0_ MAC  --- 0 bb 8 [0:0--1:0 ID 0 10390323 55 0 0 068 293:0] 
s 1.183867500 _0_ MAC  --- 0 bb 8 [0:0--1:0 ID 0 10390323 71 0 0 068 294:0] 
s 1.184805000 _0_ MAC  --- 0 bb 8 [0:0--1:0 ID 0 10390323 39 0 0 068 295:0] 
s 1.185117500 _0_ MAC  --- 0 bb 8 [0:0--1:0 ID 0 10390323 10 0 0 068 296:0] 
s 1.186055000 _0_ MAC  --- 0 bb 8 [0:0--1:0 ID 0 10390323 57 0 0 068 297:0] 
s 1.186367500 _0_ MAC  --- 0 bb 8 [0:0--1:0 ID 0 10390323 73 0 0 068 298:0] 
s 1.187305000 _0_ MAC  --- 0 bb 8 [0:0--1:0 ID 0 10390323 41 0 0 068 299:0] 
s 1.187617500 _0_ MAC  --- 0 bb 8 [0:0--1:0 ID 0 10390323 75 0 0 068 300:0] 
s 1.188555000 _0_ MAC  --- 0 bb 8 [0:0--1:0 ID 0 10390323 51 0 0 068 301:0] 
s 1.188867500 _0_ MAC  --- 0 bb 8 [0:0--1:0 ID 0 10390323 67 0 0 068 302:0] 
s 1.189805000 _0_ MAC  --- 0 bb 8 [0:0--1:0 ID 0 10390323 35 0 0 068 303:0] 
s 1.190117500 _0_ MAC  --- 0 bb 8 [0:0--1:0 ID 0 10390323 06 0 0 068 304:0] 
s 1.191055000 _0_ MAC  --- 0 bb 8 [0:0--1:0 ID 0 10390323 53 0 0 068 305:0] 
s 1.191367500 _0_ MAC  --- 0 bb 8 [0:0--1:0 ID 0 10390323 69 0 0 068 306:0] 
s 1.192305000 _0_ MAC  --- 0 bb 8 [0:0--1:0 ID 0 10390323 37 0 0 068 307:0] 
s 1.192617500 _0_ MAC  --- 0 bb 8 [0:0--1:0 ID 0 10390323 08 0 0 068 308:0] 
s 1.193555000 _0_ MAC  --- 0 bb 8 [0:0--1:0 ID 0 10390323 55 0 0 068 309:0] 
s 1.193867500 _0_ MAC  --- 0 bb 8 [0:0--1:0 ID 0 10390323 71 0 0 068 310:0] 
s 1.194805000 _0_ MAC  --- 0 bb 8 [0:0--1:0 ID 0 10390323 39 0 0 068 311:0] 
s 1.195117500 _0_ MAC  --- 0 bb 8 [0:0--1:0 ID 0 10390323 10 0 0 068 312:0] 
s 1.196055000 _0_ MAC  --- 0 bb 8 [0:0--1:0 ID 0 10390323 57 0 0 068 313:0] 
s 1.196367500 _0_ MAC  --- 0 bb 8 [0:0--1:0 ID 0 10390323 73 0 0 068 314:0] 
s 1.197305000 _0_ MAC  --- 0 bb 8 [0:0--1:0 ID 0 10390323 41 0 0 068 315:0] 
s 1.197617500 _0_ MAC  --- 0 bb 8 [0:0--1:0 ID 0 10390323 75 0 0 068 316:0] 
s 1.198555000 _0_ MAC  --- 0 bb 8 [0:0--1:0 ID 0 10390323 51 0 0 068 317:0] 
s 1.198867500 _0_ MAC  --- 0 bb 8 [0:0--1:0 ID 0 10390323 67 0 0 068 318:0] 
s 1.199805000 _0_ MAC  --- 0 bb 8 [0:0--1:0 ID 0 10390323 35 0 0 068 319:0] 
s 1.200117500 _0_ MAC  --- 0 bb 8 [0:0--1:0 ID 0 10390323 06 0 0 068 320:0] 
s 1.201055000 _0_ MAC  --- 0 bb 8 [0:0--1:0 ID 0 10390323 53 0 0 068 321:0] 
s 1.201367500 _0_ MAC  --- 0 bb 8 [0:0--1:0 ID 0 10390323 69 0 0 068 322:0] 
s 1.202305000 _0_ MAC  --- 0 bb 8 [0:0--1:0 ID 0 10390323 37 0 0 068 323:0] 
s 1.202617500 _0_ MAC  --- 0 bb 8 [0:0--1:0 ID 0 10390323 08 0 0 068 324:0] 
s 1.203555000 _0_ MAC  --- 0 bb 8 [0:0--1:0 ID 0 10390323 55 0 0 068 325:0] 
s 1.203867500 _0_ MAC  --- 0 bb 8 [0:0--1:0 ID 0 10390323 71 0 0 068 326:0] 
s 1.204805000 _0_ MAC  --- 0 bb 8 [0:0--1:0 ID 0 10390323 39 0 0 068 327:0] 
s 1.205117500 _0_ MAC  --- 0 bb 8 [0:0--1:0 ID 0 10390323 10 0 0 068 328:0] 
s 1.206055000 _0_ MAC  --- 0 bb 8 [0:0--1:0 ID 0 10390323 57 0 0 068 329:0] 
s 1.206367500 _0_ MAC  --- 0 bb 8 [0:0--1:0 ID 0 10390323 73 0 0 068 330:0] 
s 1.207305000 _0_ MAC  --- 0 bb 8 [0:0--1:0 ID 0 10390323 41 0 0 068 331:0] 
s 1.207617500 _0_ MAC  --- 0 bb 8 [0:0--1:0 ID 0 10390323 75 0 0 068 332:0] 
s 1.208555000 _0_ MAC  --- 0 bb 8 [0:0--1:0 ID 0 10390323 51 0 0 068 333:0] 
s 1.208867500 _0_ MAC  --- 0 bb 8 [0:0--1:0 ID 0 10390323 67 0 0 068 334:0] 
s 1.209805000 _0_ MAC  --- 0 bb 8 [0:0--1:0 ID 0 10390323 35 0 0 068 335:0] 
s 1.210117500 _0_ MAC  --- 0 bb 8 [0:0--1:0 ID 0 10390323 06 0 0 068 336:0] 
s 1.211055000 _0_ MAC  --- 0 bb 8 [0:0--1:0 ID 0 10390323 53 0 0 068 337:0] 
s 1.211367500 _0_ MAC  --- 0 bb 8 [0:0--1:0 ID 0 10390323 69 0 0 068 338:0] 
s 1.212305000 _0_ MAC  --- 0 bb 8 [0:0--1:0 ID 0 10390323 37 0 0 068 339:0] 
s 1.212617500 _0_ MAC  --- 0 bb 8 [0:0--1:0 ID 0 10390323 08 0 0 068 340:0] 
s 1.213555000 _0_ MAC  --- 0 bb 8 [0:0--1:0 ID 0 10390323 55 0 0 068 341:0] 
s 1.213867500 _0_ MAC  --- 0 bb 8 [0:0--1:0 ID 0 10390323 71 0 0 068 342:0] 
s 1.214805000 _0_ MAC  --- 0 bb 8 [0:0--1:0 ID 0 10390323 39 0 0 068 343:0] 
s 1.215117500 _0_ MAC  --- 0 bb 8 [0:0--1:0 ID 0 10390323 10 0 0 068 344:0] 
s 1.216055000 _0_ MAC  --- 0 bb 8 [0:0--1:0 ID 0 10390323 57 0 0 068 345:0] 
s 1.216367500 _0_ MAC  --- 0 bb 8 [0:0--1:0 ID 0 10390323 73 0 0 068 346:0] 
s 1.217305000 _0_ MAC  --- 0 bb 8 [0:0--1:0 ID 0 10390323 41 0 0 068 347:0] 
s 1.217617500 _0_ MAC  --- 0 bb 8 [0:0--1:0 ID 0 10390323 75 0 0 068 348:0] 
s 1.218555000 _0_ MAC  --- 0 bb 8 [0:0--1:0 ID 0 10390323 51 0 0 068 349:0] 
s 1.218867500 _0_ MAC  --- 0 bb 8 [0:0--1:0 ID 0 10390323 67 0 0 068 350:0] 
s 1.219805000 _0_ MAC  --- 0 bb 8 [0:0--1:0 ID 0 10390323 35 0 0 068 351:0] 
s 1.220117500 _0_ MAC  --- 0 bb 8 [0:0--1:0 ID 0 10390323 06 0 0 068 352:0] 
s 1.221055000 _0_ MAC  --- 0 bb 8 [0:0--1:0 ID 0 10390323 53 0 0 068 353:0] 
s 1.221367500 _0_ MAC  --- 0 bb 8 [0:0--1:0 ID 0 10390323 69 0 0 068 354:0] 
s 1.222305000 _0_ MAC  --- 0 bb 8 [0:0--1:0 ID 0 10390323 37 0 0 068 355:0] 
s 1.222617500 _0_ MAC  --- 0 bb 8 [0:0--1:0 ID 0 10390323 08 0 0 068 356:0] 
s 1.223555000 _0_ MAC  --- 0 bb 8 [0:0--1:0 ID 0 10390323 55 0 0 068 357:0] 
s 1.223867500 _0_ MAC  --- 0 bb 8 [0:0--1:0 ID 0 10390323 71 0 0 068 358:0] 
s 1.224805000 _0_ MAC  --- 0 bb 8 [0:0--1:0 ID 0 10390323 39 0 0 068 359:0] 
s 1.225117500 _0_ MAC  --- 0 bb 8 [0:0--1:0 ID 0 10390323 10 0 0 068 360:0] 
s 1.226055000 _0_ MAC  --- 0 bb 8 [0:0--1:0 ID 0 10390323 57 0 0 068 361:0] 
s 1.226367500 _0_ MAC  --- 0 bb 8 [0:0--1:0 ID 0 10390323 73 0 0 068 362:0] 
s 1.227305000 _0_ MAC  --- 0 bb 8 [0:0--1:0 ID 0 10390323 41 0 0 068 363:0] 
s 1.227617500 _0_ MAC  --- 0 bb 8 [0:0--1:0 ID 0 10390323 75 0 0 068 364:0] 
s 1.228555000 _0_ MAC  --- 0 bb 8 [0:0--1:0 ID 0 10390323 51 0 0 068 365:0] 
s 1.228867500 _0_ MAC  --- 0 bb 8 [0:0--1:0 ID 0 10390323 67 0 0 068 366:0] 
s 1.229805000 _0_ MAC  --- 0 bb 8 [0:0--1:0 ID 0 10390323 35 0 0 068 367:0] 
s 1.230117500 _0_ MAC  --- 0 bb 8 [0:0--1:0 ID 0 10390323 06 0 0 068 368:0] 
s 1.231055000 _0_ MAC  --- 0 bb 8 [0:0--1:0 ID 0 10390323 53 0 0 068 369:0] 
s 1.231367500 _0_ MAC  --- 0 bb 8 [0:0--1:0 ID 0 10390323 69 0 0 068 370:0] 
s 1.232305000 _0_ MAC  --- 0 bb 8 [0:0--1:0 ID 0 10390323 37 0 0 068 371:0] 
s 1.232617500 _0_ MAC  --- 0 bb 8 [0:0--1:0 ID 0 10390323 08 0 0 068 372:0] 
s 1.233555000 _0_ MAC  --- 0 bb 8 [0:0--1:0 ID 0 10390323 55 0 0 068 373:0] 
s 1.233867500 _0_ MAC  --- 0 bb 8 [0:0--1:0 ID 0 10390323 71 0 0 068 374:0] 
s 1.234805000 _0_ MAC  --- 0 bb 8 [0:0--1:0 ID 0 10390323 39 0 0 068 375:0] 
s 1.235117500 _0_ MAC  --- 0 bb 8 [0:0--1:0 ID 0 10390323 10 0 0 068 376:0] 
s 1.236055000 _0_ MAC  --- 0 bb 8 [0:0--1:0 ID 0 10390323 57 0 0 068 377:0] 
s 1.236367500 _0_ MAC  --- 0 bb 8 [0:0--1:0 ID 0 10390323 73 0 0 068 378:0] 
s 1.237305000 _0_ MAC  --- 0 bb 8 [0:0--1:0 ID 0 10390323 41 0 0 068 379:0] 
s 1.237617500 _0_ MAC  --- 0 bb 8 [0:0--1:0 ID 0 10390323 75 0 0 068 380:0] 
s 1.238555000 _0_ MAC  --- 0 bb 8 [0:0--1:0 ID 0 10390323 51 0 0 068 381:0] 
s 1.238867500 _0_ MAC  --- 0 bb 8 [0:0--1:0 ID 0 10390323 67 0 0 068 382:0] 
s 1.239805000 _0_ MAC  --- 0 bb 8 [0:0--1:0 ID 0 10390323 35 0 0 068 383:0] 
s 1.240117500 _0_ MAC  --- 0 bb 8 [0:0--1:0 ID 0 10390323 06 0 0 068 384:0] 
s 1.241055000 _0_ MAC  --- 0 bb 8 [0:0--1:0 ID 0 10390323 53 0 0 068 385:0] 
s 1.241367500 _0_ MAC  --- 0 bb 8 [0:0--1:0 ID 0 10390323 69 0 0 068 386:0] 
s 1.242305000 _0_ MAC  --- 0 bb 8 [0:0--1:0 ID 0 10390323 37 0 0 068 387:0] 
s 1.242617500 _0_ MAC  --- 0 bb 8 [0:0--1:0 ID 0 10390323 08 0 0 068 388:0] 
s 1.243555000 _0_ MAC  --- 0 bb 8 [0:0--1:0 ID 0 10390323 55 0 0 068 389:0] 
s 1.243867500 _0_ MAC  --- 0 bb 8 [0:0--1:0 ID 0 10390323 71 0 0 068 390:0] 